<?xml version="1.0" encoding="UTF-8"?>

<!-- generated on 2025-05-04 07:30:09 by Eclipse SUMO GUI Version 1.18.0
<configuration xmlns:xsi="http://www.w3.org/2001/XMLSchema-instance" xsi:noNamespaceSchemaLocation="http://sumo.dlr.de/xsd/sumoConfiguration.xsd">

    <input>
        <net-file value="D:\TrAD-Quito\sumo\config\../input/simon_bolivar.net.xml"/>
        <route-files value="D:\TrAD-Quito\sumo\config\../input/simon_bolivar_roi.rou.xml"/>
        <additional-files value="D:\TrAD-Quito\sumo\config\../input/vehicles.add.xml"/>
    </input>

    <output>
        <tripinfo-output value="D:\TrAD-Quito\sumo\config\../output/tripinfo_roi.xml"/>
    </output>

    <time>
        <begin value="0"/>
        <end value="1000"/>
    </time>

    <report>
        <verbose-->

<tripinfos xmlns:xsi="http://www.w3.org/2001/XMLSchema-instance" xsi:noNamespaceSchemaLocation="http://sumo.dlr.de/xsd/tripinfo_file.xsd">
</tripinfos>
xsi:noNamespaceSchemaLocation="http://sumo.dlr.de/xsd/tripinfo_file.xsd">
    <tripinfo id="roi_trip_0" depart="0.00" departLane="24160010_0" departPos="5.10" departSpeed="0.00" departDelay="0.00" arrival="42.00" arrivalLane="25042886_0" arrivalPos="146.72" arrivalSpeed="13.69" duration="42.00" routeLength="447.22" waitingTime="0.00" waitingCount="0" stopTime="0.00" timeLoss="9.42" rerouteNo="0" devices="tripinfo_roi_trip_0" vType="veh_passenger" speedFactor="1.06" vaporized=""/>
    <tripinfo id="roi_trip_45" depart="27.00" departLane="314066421-AddedOffRampEdge_0" departPos="5.10" departSpeed="0.00" departDelay="0.00" arrival="61.00" arrivalLane="24160007#1_0" arrivalPos="174.07" arrivalSpeed="13.48" duration="34.00" routeLength="335.66" waitingTime="0.00" waitingCount="0" stopTime="0.00" timeLoss="9.33" rerouteNo="0" devices="tripinfo_roi_trip_45" vType="veh_passenger" speedFactor="1.18" vaporized=""/>
    <tripinfo id="roi_trip_40" depart="24.00" departLane="24160010_0" departPos="5.10" departSpeed="0.00" departDelay="0.00" arrival="73.00" arrivalLane="24160008_0" arrivalPos="171.71" arrivalSpeed="13.74" duration="49.00" routeLength="472.77" waitingTime="0.00" waitingCount="0" stopTime="0.00" timeLoss="14.81" rerouteNo="0" devices="tripinfo_roi_trip_40" vType="veh_passenger" speedFactor="0.92" vaporized=""/>
    <tripinfo id="roi_trip_78" depart="50.00" departLane="1163917760_0" departPos="0.20" departSpeed="0.00" departDelay="3.20" arrival="82.00" arrivalLane="431989326_0" arrivalPos="112.70" arrivalSpeed="13.68" duration="32.00" routeLength="321.57" waitingTime="0.00" waitingCount="0" stopTime="0.00" timeLoss="8.80" rerouteNo="0" devices="tripinfo_roi_trip_78" vType="veh_passenger" speedFactor="1.02" vaporized=""/>
    <tripinfo id="roi_trip_38" depart="28.00" departLane="1168283956_0" departPos="5.10" departSpeed="0.00" departDelay="5.20" arrival="89.00" arrivalLane="24160011_0" arrivalPos="179.01" arrivalSpeed="7.24" duration="61.00" routeLength="453.79" waitingTime="0.00" waitingCount="0" stopTime="0.00" timeLoss="28.17" rerouteNo="0" devices="tripinfo_roi_trip_38" vType="veh_passenger" speedFactor="0.87" vaporized=""/>
    <tripinfo id="roi_trip_65" depart="39.00" departLane="24160011_0" departPos="5.10" departSpeed="0.00" departDelay="0.00" arrival="92.00" arrivalLane="431981408#0_0" arrivalPos="79.97" arrivalSpeed="13.62" duration="53.00" routeLength="412.72" waitingTime="4.00" waitingCount="1" stopTime="0.00" timeLoss="22.35" rerouteNo="0" devices="tripinfo_roi_trip_65" vType="veh_passenger" speedFactor="0.96" vaporized=""/>
    <tripinfo id="roi_trip_76" depart="46.00" departLane="24160008_0" departPos="5.10" departSpeed="0.00" departDelay="0.40" arrival="94.00" arrivalLane="24160009_0" arrivalPos="186.91" arrivalSpeed="13.84" duration="48.00" routeLength="504.46" waitingTime="0.00" waitingCount="0" stopTime="0.00" timeLoss="11.22" rerouteNo="0" devices="tripinfo_roi_trip_76" vType="veh_passenger" speedFactor="0.85" vaporized=""/>
    <tripinfo id="roi_trip_4" depart="3.00" departLane="24160020_0" departPos="5.10" departSpeed="0.00" departDelay="0.60" arrival="100.00" arrivalLane="535922410-AddedOnRampEdge_0" arrivalPos="94.30" arrivalSpeed="13.52" duration="97.00" routeLength="945.66" waitingTime="0.00" waitingCount="0" stopTime="0.00" timeLoss="27.99" rerouteNo="0" devices="tripinfo_roi_trip_4" vType="veh_passenger" speedFactor="1.08" vaporized=""/>
    <tripinfo id="roi_trip_56" depart="34.00" departLane="314066421-AddedOffRampEdge_0" departPos="5.10" departSpeed="0.00" departDelay="0.40" arrival="102.00" arrivalLane="431989326_0" arrivalPos="112.70" arrivalSpeed="13.46" duration="68.00" routeLength="752.50" waitingTime="0.00" waitingCount="0" stopTime="0.00" timeLoss="12.92" rerouteNo="0" devices="tripinfo_roi_trip_56" vType="veh_passenger" speedFactor="1.02" vaporized=""/>
    <tripinfo id="roi_trip_130" depart="79.00" departLane="1163917760_0" departPos="0.20" departSpeed="0.00" departDelay="1.00" arrival="127.00" arrivalLane="24160009_0" arrivalPos="186.91" arrivalSpeed="13.71" duration="48.00" routeLength="512.09" waitingTime="0.00" waitingCount="0" stopTime="0.00" timeLoss="10.67" rerouteNo="0" devices="tripinfo_roi_trip_130" vType="veh_passenger" speedFactor="1.04" vaporized=""/>
    <tripinfo id="roi_trip_13" depart="8.00" departLane="24160007#2_0" departPos="5.10" departSpeed="0.00" departDelay="0.20" arrival="135.00" arrivalLane="428326182_0" arrivalPos="173.95" arrivalSpeed="13.84" duration="127.00" routeLength="1409.19" waitingTime="0.00" waitingCount="0" stopTime="0.00" timeLoss="23.51" rerouteNo="0" devices="tripinfo_roi_trip_13" vType="veh_passenger" speedFactor="1.09" vaporized=""/>
    <tripinfo id="roi_trip_31" depart="19.00" departLane="1168283956_0" departPos="5.10" departSpeed="0.00" departDelay="0.40" arrival="138.00" arrivalLane="431989326_0" arrivalPos="112.70" arrivalSpeed="13.41" duration="119.00" routeLength="1237.24" waitingTime="1.00" waitingCount="1" stopTime="0.00" timeLoss="29.10" rerouteNo="0" devices="tripinfo_roi_trip_31" vType="veh_passenger" speedFactor="1.02" vaporized=""/>
    <tripinfo id="roi_trip_20" depart="12.00" departLane="199885792_0" departPos="5.10" departSpeed="0.00" departDelay="0.00" arrival="144.00" arrivalLane="535922409_1" arrivalPos="125.11" arrivalSpeed="13.56" duration="132.00" routeLength="1525.32" waitingTime="0.00" waitingCount="0" stopTime="0.00" timeLoss="14.22" rerouteNo="0" devices="tripinfo_roi_trip_20" vType="veh_passenger" speedFactor="0.99" vaporized=""/>
    <tripinfo id="roi_trip_80" depart="48.00" departLane="428326182_0" departPos="5.10" departSpeed="0.00" departDelay="0.00" arrival="144.00" arrivalLane="1168109380_0" arrivalPos="88.00" arrivalSpeed="13.85" duration="96.00" routeLength="1071.53" waitingTime="0.00" waitingCount="0" stopTime="0.00" timeLoss="13.84" rerouteNo="0" devices="tripinfo_roi_trip_80" vType="veh_passenger" speedFactor="1.10" vaporized=""/>
    <tripinfo id="roi_trip_6" depart="4.00" departLane="895708421_0" departPos="5.10" departSpeed="0.00" departDelay="0.40" arrival="147.00" arrivalLane="199885791_0" arrivalPos="435.42" arrivalSpeed="11.05" duration="143.00" routeLength="1592.05" waitingTime="0.00" waitingCount="0" stopTime="0.00" timeLoss="14.25" rerouteNo="0" devices="tripinfo_roi_trip_6" vType="veh_passenger" speedFactor="1.03" vaporized=""/>
    <tripinfo id="roi_trip_70" depart="42.00" departLane="535922410-AddedOnRampEdge_0" departPos="5.10" departSpeed="0.00" departDelay="0.00" arrival="148.00" arrivalLane="431989326_1" arrivalPos="112.70" arrivalSpeed="13.79" duration="106.00" routeLength="1093.18" waitingTime="0.00" waitingCount="0" stopTime="0.00" timeLoss="26.92" rerouteNo="0" devices="tripinfo_roi_trip_70" vType="veh_passenger" speedFactor="1.09" vaporized=""/>
    <tripinfo id="roi_trip_187" depart="115.00" departLane="1163917760_0" departPos="0.20" departSpeed="0.00" departDelay="2.80" arrival="148.00" arrivalLane="431989326_0" arrivalPos="112.70" arrivalSpeed="13.66" duration="33.00" routeLength="321.57" waitingTime="0.00" waitingCount="0" stopTime="0.00" timeLoss="9.05" rerouteNo="0" devices="tripinfo_roi_trip_187" vType="veh_passenger" speedFactor="1.01" vaporized=""/>
    <tripinfo id="roi_trip_27" depart="17.00" departLane="428326182_0" departPos="5.10" departSpeed="0.00" departDelay="0.80" arrival="151.00" arrivalLane="24160010_0" arrivalPos="159.76" arrivalSpeed="13.67" duration="134.00" routeLength="1389.57" waitingTime="0.00" waitingCount="0" stopTime="0.00" timeLoss="24.06" rerouteNo="0" devices="tripinfo_roi_trip_27" vType="veh_passenger" speedFactor="0.94" vaporized=""/>
    <tripinfo id="roi_trip_111" depart="67.00" departLane="24160020_0" departPos="5.10" departSpeed="0.00" departDelay="0.40" arrival="155.00" arrivalLane="24160008_0" arrivalPos="171.71" arrivalSpeed="13.62" duration="88.00" routeLength="510.18" waitingTime="27.00" waitingCount="1" stopTime="0.00" timeLoss="50.36" rerouteNo="0" devices="tripinfo_roi_trip_111" vType="veh_passenger" speedFactor="1.06" vaporized=""/>
    <tripinfo id="roi_trip_189" depart="114.00" departLane="535922409_0" departPos="5.10" departSpeed="0.00" departDelay="0.60" arrival="156.00" arrivalLane="1163917760_0" arrivalPos="0.20" arrivalSpeed="13.47" duration="42.00" routeLength="439.85" waitingTime="0.00" waitingCount="0" stopTime="0.00" timeLoss="9.96" rerouteNo="0" devices="tripinfo_roi_trip_189" vType="veh_passenger" speedFactor="1.07" vaporized=""/>
    <tripinfo id="roi_trip_93" depart="56.00" departLane="535922410-AddedOnRampEdge_0" departPos="5.10" departSpeed="0.00" departDelay="0.20" arrival="158.00" arrivalLane="535922409_0" arrivalPos="125.11" arrivalSpeed="13.67" duration="102.00" routeLength="451.77" waitingTime="42.00" waitingCount="1" stopTime="0.00" timeLoss="68.76" rerouteNo="0" devices="tripinfo_roi_trip_93" vType="veh_passenger" speedFactor="0.97" vaporized=""/>
    <tripinfo id="roi_trip_72" depart="46.00" departLane="431989326_0" departPos="5.10" departSpeed="0.00" departDelay="2.80" arrival="159.00" arrivalLane="1168109380_0" arrivalPos="88.00" arrivalSpeed="10.08" duration="113.00" routeLength="1176.09" waitingTime="0.00" waitingCount="0" stopTime="0.00" timeLoss="17.21" rerouteNo="0" devices="tripinfo_roi_trip_72" vType="veh_passenger" speedFactor="0.90" vaporized=""/>
    <tripinfo id="roi_trip_47" depart="31.00" departLane="1163917760_0" departPos="0.20" departSpeed="0.00" departDelay="2.80" arrival="161.00" arrivalLane="1168109380_0" arrivalPos="88.00" arrivalSpeed="11.19" duration="130.00" routeLength="1390.06" waitingTime="0.00" waitingCount="0" stopTime="0.00" timeLoss="26.50" rerouteNo="0" devices="tripinfo_roi_trip_47" vType="veh_passenger" speedFactor="1.15" vaporized=""/>
    <tripinfo id="roi_trip_217" depart="131.00" departLane="24160009_0" departPos="5.10" departSpeed="0.00" departDelay="0.80" arrival="163.00" arrivalLane="535922410_0" arrivalPos="30.49" arrivalSpeed="13.46" duration="32.00" routeLength="317.93" waitingTime="0.00" waitingCount="0" stopTime="0.00" timeLoss="8.42" rerouteNo="0" devices="tripinfo_roi_trip_217" vType="veh_passenger" speedFactor="1.00" vaporized=""/>
    <tripinfo id="roi_trip_206" depart="124.00" departLane="314066421-AddedOffRampEdge_0" departPos="5.10" departSpeed="0.00" departDelay="0.40" arrival="166.00" arrivalLane="24160007#2_1" arrivalPos="94.38" arrivalSpeed="13.53" duration="42.00" routeLength="437.56" waitingTime="0.00" waitingCount="0" stopTime="0.00" timeLoss="9.70" rerouteNo="0" devices="tripinfo_roi_trip_206" vType="veh_passenger" speedFactor="0.94" vaporized=""/>
    <tripinfo id="roi_trip_104" depart="63.00" departLane="428326182_0" departPos="5.10" departSpeed="0.00" departDelay="0.60" arrival="169.00" arrivalLane="1168109380_0" arrivalPos="88.00" arrivalSpeed="11.31" duration="106.00" routeLength="1071.53" waitingTime="0.00" waitingCount="0" stopTime="0.00" timeLoss="17.82" rerouteNo="0" devices="tripinfo_roi_trip_104" vType="veh_passenger" speedFactor="0.91" vaporized=""/>
    <tripinfo id="roi_trip_228" depart="137.00" departLane="314066421-AddedOffRampEdge_0" departPos="5.10" departSpeed="0.00" departDelay="0.20" arrival="170.00" arrivalLane="24160007#1_0" arrivalPos="174.07" arrivalSpeed="13.79" duration="33.00" routeLength="335.66" waitingTime="0.00" waitingCount="0" stopTime="0.00" timeLoss="8.57" rerouteNo="0" devices="tripinfo_roi_trip_228" vType="veh_passenger" speedFactor="1.12" vaporized=""/>
    <tripinfo id="roi_trip_233" depart="141.00" departLane="314066421-AddedOffRampEdge_0" departPos="5.10" departSpeed="0.00" departDelay="1.20" arrival="173.00" arrivalLane="24160020_1" arrivalPos="196.57" arrivalSpeed="13.44" duration="32.00" routeLength="286.46" waitingTime="1.00" waitingCount="1" stopTime="0.00" timeLoss="10.78" rerouteNo="0" devices="tripinfo_roi_trip_233" vType="veh_passenger" speedFactor="1.14" vaporized=""/>
    <tripinfo id="roi_trip_53" depart="36.00" departLane="1163917760_0" departPos="0.20" departSpeed="0.00" departDelay="4.20" arrival="177.00" arrivalLane="199885791_1" arrivalPos="435.42" arrivalSpeed="13.02" duration="141.00" routeLength="1681.44" waitingTime="0.00" waitingCount="0" stopTime="0.00" timeLoss="14.86" rerouteNo="0" devices="tripinfo_roi_trip_53" vType="veh_passenger" speedFactor="1.17" vaporized=""/>
    <tripinfo id="roi_trip_127" depart="77.00" departLane="1168109380_0" departPos="5.10" departSpeed="0.00" departDelay="0.80" arrival="178.00" arrivalLane="535922410_0" arrivalPos="30.49" arrivalSpeed="6.81" duration="101.00" routeLength="1194.29" waitingTime="0.00" waitingCount="0" stopTime="0.00" timeLoss="14.87" rerouteNo="0" devices="tripinfo_roi_trip_127" vType="veh_passenger" speedFactor="0.98" vaporized=""/>
    <tripinfo id="roi_trip_121" depart="73.00" departLane="428326182_0" departPos="5.10" departSpeed="0.00" departDelay="0.40" arrival="181.00" arrivalLane="535922409_1" arrivalPos="125.11" arrivalSpeed="13.84" duration="108.00" routeLength="1213.60" waitingTime="0.00" waitingCount="0" stopTime="0.00" timeLoss="13.49" rerouteNo="0" devices="tripinfo_roi_trip_121" vType="veh_passenger" speedFactor="1.02" vaporized=""/>
    <tripinfo id="roi_trip_241" depart="155.00" departLane="535922409_0" departPos="5.10" departSpeed="0.00" departDelay="10.40" arrival="186.00" arrivalLane="24160010_0" arrivalPos="159.76" arrivalSpeed="13.69" duration="31.00" routeLength="295.98" waitingTime="0.00" waitingCount="0" stopTime="0.00" timeLoss="9.34" rerouteNo="0" devices="tripinfo_roi_trip_241" vType="veh_passenger" speedFactor="1.05" vaporized=""/>
    <tripinfo id="roi_trip_90" depart="54.00" departLane="24160010_0" departPos="5.10" departSpeed="0.00" departDelay="0.00" arrival="187.00" arrivalLane="1168283956_0" arrivalPos="140.36" arrivalSpeed="13.64" duration="133.00" routeLength="1341.15" waitingTime="0.00" waitingCount="0" stopTime="0.00" timeLoss="32.88" rerouteNo="0" devices="tripinfo_roi_trip_90" vType="veh_passenger" speedFactor="1.02" vaporized=""/>
    <tripinfo id="roi_trip_77" depart="47.00" departLane="1163917760_0" departPos="0.20" departSpeed="0.00" departDelay="0.80" arrival="188.00" arrivalLane="199885791_0" arrivalPos="435.42" arrivalSpeed="12.67" duration="141.00" routeLength="1681.44" waitingTime="0.00" waitingCount="0" stopTime="0.00" timeLoss="15.02" rerouteNo="0" devices="tripinfo_roi_trip_77" vType="veh_passenger" speedFactor="1.17" vaporized=""/>
    <tripinfo id="roi_trip_15" depart="9.00" departLane="25042886_0" departPos="5.10" departSpeed="0.00" departDelay="0.00" arrival="195.00" arrivalLane="1168273992-AddedOffRampEdge_0" arrivalPos="94.08" arrivalSpeed="13.60" duration="186.00" routeLength="1800.77" waitingTime="5.00" waitingCount="1" stopTime="0.00" timeLoss="52.65" rerouteNo="0" devices="tripinfo_roi_trip_15" vType="veh_passenger" speedFactor="1.05" vaporized=""/>
    <tripinfo id="roi_trip_106" depart="64.00" departLane="431981408#0_0" departPos="5.10" departSpeed="0.00" departDelay="0.40" arrival="195.00" arrivalLane="895708421_0" arrivalPos="90.33" arrivalSpeed="3.66" duration="131.00" routeLength="1077.57" waitingTime="4.00" waitingCount="2" stopTime="0.00" timeLoss="50.75" rerouteNo="0" devices="tripinfo_roi_trip_106" vType="veh_passenger" speedFactor="1.02" vaporized=""/>
    <tripinfo id="roi_trip_35" depart="21.00" departLane="24160011_0" departPos="5.10" departSpeed="0.00" departDelay="0.00" arrival="196.00" arrivalLane="1168283956_0" arrivalPos="140.36" arrivalSpeed="13.50" duration="175.00" routeLength="1678.41" waitingTime="0.00" waitingCount="0" stopTime="0.00" timeLoss="43.18" rerouteNo="0" devices="tripinfo_roi_trip_35" vType="veh_passenger" speedFactor="0.89" vaporized=""/>
    <tripinfo id="roi_trip_66" depart="40.00" departLane="199885791_0" departPos="5.10" departSpeed="0.00" departDelay="0.40" arrival="196.00" arrivalLane="895708421_1" arrivalPos="90.33" arrivalSpeed="3.45" duration="156.00" routeLength="1370.74" waitingTime="12.00" waitingCount="1" stopTime="0.00" timeLoss="49.63" rerouteNo="0" devices="tripinfo_roi_trip_66" vType="veh_passenger" speedFactor="1.09" vaporized=""/>
    <tripinfo id="roi_trip_75" depart="45.00" departLane="1168109380_0" departPos="5.10" departSpeed="0.00" departDelay="0.00" arrival="199.00" arrivalLane="199885792_0" arrivalPos="303.53" arrivalSpeed="13.41" duration="154.00" routeLength="1459.39" waitingTime="0.00" waitingCount="0" stopTime="0.00" timeLoss="41.58" rerouteNo="0" devices="tripinfo_roi_trip_75" vType="veh_passenger" speedFactor="0.85" vaporized=""/>
    <tripinfo id="roi_trip_279" depart="168.00" departLane="314066421-AddedOffRampEdge_0" departPos="5.10" departSpeed="0.00" departDelay="0.60" arrival="199.00" arrivalLane="24160020_1" arrivalPos="196.57" arrivalSpeed="13.59" duration="31.00" routeLength="285.25" waitingTime="0.00" waitingCount="0" stopTime="0.00" timeLoss="10.19" rerouteNo="0" devices="tripinfo_roi_trip_279" vType="veh_passenger" speedFactor="0.97" vaporized=""/>
    <tripinfo id="roi_trip_69" depart="44.00" departLane="199885791_0" departPos="5.10" departSpeed="0.00" departDelay="2.60" arrival="200.00" arrivalLane="895708421_0" arrivalPos="90.33" arrivalSpeed="4.45" duration="156.00" routeLength="1370.74" waitingTime="8.00" waitingCount="1" stopTime="0.00" timeLoss="48.55" rerouteNo="0" devices="tripinfo_roi_trip_69" vType="veh_passenger" speedFactor="1.04" vaporized=""/>
    <tripinfo id="roi_trip_57" depart="35.00" departLane="535922410_0" departPos="5.10" departSpeed="0.00" departDelay="0.80" arrival="201.00" arrivalLane="199885792_0" arrivalPos="303.53" arrivalSpeed="13.80" duration="166.00" routeLength="1583.89" waitingTime="2.00" waitingCount="1" stopTime="0.00" timeLoss="48.53" rerouteNo="0" devices="tripinfo_roi_trip_57" vType="veh_passenger" speedFactor="0.97" vaporized=""/>
    <tripinfo id="roi_trip_292" depart="176.00" departLane="1168283956_0" departPos="5.10" departSpeed="0.00" departDelay="0.80" arrival="209.00" arrivalLane="535922410_1" arrivalPos="30.49" arrivalSpeed="9.82" duration="33.00" routeLength="271.75" waitingTime="0.00" waitingCount="0" stopTime="0.00" timeLoss="12.94" rerouteNo="0" devices="tripinfo_roi_trip_292" vType="veh_passenger" speedFactor="0.84" vaporized=""/>
    <tripinfo id="roi_trip_67" depart="41.00" departLane="535922410_0" departPos="5.10" departSpeed="0.00" departDelay="0.80" arrival="210.00" arrivalLane="895708421_1" arrivalPos="90.33" arrivalSpeed="13.61" duration="169.00" routeLength="1448.94" waitingTime="1.00" waitingCount="1" stopTime="0.00" timeLoss="61.57" rerouteNo="0" devices="tripinfo_roi_trip_67" vType="veh_passenger" speedFactor="1.04" vaporized=""/>
    <tripinfo id="roi_trip_116" depart="71.00" departLane="25042886_0" departPos="5.10" departSpeed="0.00" departDelay="1.40" arrival="210.00" arrivalLane="431981407_0" arrivalPos="226.58" arrivalSpeed="13.84" duration="139.00" routeLength="1404.36" waitingTime="0.00" waitingCount="0" stopTime="0.00" timeLoss="32.47" rerouteNo="0" devices="tripinfo_roi_trip_116" vType="veh_passenger" speedFactor="0.98" vaporized=""/>
    <tripinfo id="roi_trip_98" depart="59.00" departLane="199885792_0" departPos="5.10" departSpeed="0.00" departDelay="0.20" arrival="212.00" arrivalLane="199885791_0" arrivalPos="435.42" arrivalSpeed="10.88" duration="153.00" routeLength="1674.63" waitingTime="0.00" waitingCount="0" stopTime="0.00" timeLoss="15.14" rerouteNo="0" devices="tripinfo_roi_trip_98" vType="veh_passenger" speedFactor="0.99" vaporized=""/>
    <tripinfo id="roi_trip_162" depart="98.00" departLane="428326182_0" departPos="5.10" departSpeed="0.00" departDelay="0.80" arrival="215.00" arrivalLane="431981408#0_1" arrivalPos="79.97" arrivalSpeed="13.82" duration="117.00" routeLength="1310.37" waitingTime="0.00" waitingCount="0" stopTime="0.00" timeLoss="13.58" rerouteNo="0" devices="tripinfo_roi_trip_162" vType="veh_passenger" speedFactor="0.96" vaporized=""/>
    <tripinfo id="roi_trip_107" depart="65.00" departLane="1168273992-AddedOffRampEdge_0" departPos="5.10" departSpeed="0.00" departDelay="0.80" arrival="221.00" arrivalLane="24160008_1" arrivalPos="171.71" arrivalSpeed="13.46" duration="156.00" routeLength="1685.66" waitingTime="0.00" waitingCount="0" stopTime="0.00" timeLoss="27.29" rerouteNo="0" devices="tripinfo_roi_trip_107" vType="veh_passenger" speedFactor="1.02" vaporized=""/>
    <tripinfo id="roi_trip_87" depart="55.00" departLane="24160011_0" departPos="5.10" departSpeed="0.00" departDelay="2.80" arrival="226.00" arrivalLane="1168283956_0" arrivalPos="140.36" arrivalSpeed="13.68" duration="171.00" routeLength="1678.41" waitingTime="0.00" waitingCount="0" stopTime="0.00" timeLoss="45.36" rerouteNo="0" devices="tripinfo_roi_trip_87" vType="veh_passenger" speedFactor="1.14" vaporized=""/>
    <tripinfo id="roi_trip_82" depart="50.00" departLane="1168109380_0" departPos="5.10" departSpeed="0.00" departDelay="0.80" arrival="237.00" arrivalLane="423997744_0" arrivalPos="607.99" arrivalSpeed="13.43" duration="187.00" routeLength="1986.66" waitingTime="0.00" waitingCount="0" stopTime="0.00" timeLoss="38.90" rerouteNo="0" devices="tripinfo_roi_trip_82" vType="veh_passenger" speedFactor="1.00" vaporized=""/>
    <tripinfo id="roi_trip_59" depart="36.00" departLane="428326182_0" departPos="5.10" departSpeed="0.00" departDelay="0.60" arrival="240.00" arrivalLane="431981407_0" arrivalPos="226.58" arrivalSpeed="13.70" duration="204.00" routeLength="2412.47" waitingTime="0.00" waitingCount="0" stopTime="0.00" timeLoss="25.69" rerouteNo="0" devices="tripinfo_roi_trip_59" vType="veh_passenger" speedFactor="1.10" vaporized=""/>
    <tripinfo id="roi_trip_156" depart="96.00" departLane="24160008_0" departPos="5.10" departSpeed="0.00" departDelay="2.40" arrival="240.00" arrivalLane="199885791_0" arrivalPos="435.42" arrivalSpeed="11.45" duration="144.00" routeLength="1673.81" waitingTime="0.00" waitingCount="0" stopTime="0.00" timeLoss="12.43" rerouteNo="0" devices="tripinfo_roi_trip_156" vType="veh_passenger" speedFactor="1.07" vaporized=""/>
    <tripinfo id="roi_trip_176" depart="106.00" departLane="24160012#1_0" departPos="5.10" departSpeed="0.00" departDelay="0.40" arrival="240.00" arrivalLane="535922410-AddedOnRampEdge_3" arrivalPos="94.30" arrivalSpeed="11.21" duration="134.00" routeLength="1197.79" waitingTime="0.00" waitingCount="0" stopTime="0.00" timeLoss="39.75" rerouteNo="0" devices="tripinfo_roi_trip_176" vType="veh_passenger" speedFactor="0.94" vaporized=""/>
    <tripinfo id="roi_trip_103" depart="62.00" departLane="24160012#1_0" departPos="5.10" departSpeed="0.00" departDelay="0.20" arrival="241.00" arrivalLane="428326182_0" arrivalPos="173.95" arrivalSpeed="13.89" duration="179.00" routeLength="1927.19" waitingTime="0.00" waitingCount="0" stopTime="0.00" timeLoss="33.28" rerouteNo="0" devices="tripinfo_roi_trip_103" vType="veh_passenger" speedFactor="0.91" vaporized=""/>
    <tripinfo id="roi_trip_334" depart="201.00" departLane="24160008_0" departPos="5.10" departSpeed="0.00" departDelay="0.60" arrival="241.00" arrivalLane="431989326_1" arrivalPos="112.70" arrivalSpeed="9.51" duration="40.00" routeLength="313.94" waitingTime="0.00" waitingCount="0" stopTime="0.00" timeLoss="17.38" rerouteNo="0" devices="tripinfo_roi_trip_334" vType="veh_passenger" speedFactor="1.06" vaporized=""/>
    <tripinfo id="roi_trip_37" depart="23.00" departLane="535922410-AddedOnRampEdge_0" departPos="5.10" departSpeed="0.00" departDelay="0.80" arrival="246.00" arrivalLane="199885791_0" arrivalPos="435.42" arrivalSpeed="9.14" duration="223.00" routeLength="1803.17" waitingTime="6.00" waitingCount="1" stopTime="0.00" timeLoss="48.73" rerouteNo="0" devices="tripinfo_roi_trip_37" vType="veh_passenger" speedFactor="0.83" vaporized=""/>
    <tripinfo id="roi_trip_202" depart="123.00" departLane="428326182_0" departPos="5.10" departSpeed="0.00" departDelay="1.80" arrival="248.00" arrivalLane="24160010_0" arrivalPos="159.76" arrivalSpeed="13.42" duration="125.00" routeLength="1389.57" waitingTime="0.00" waitingCount="0" stopTime="0.00" timeLoss="15.15" rerouteNo="0" devices="tripinfo_roi_trip_202" vType="veh_passenger" speedFactor="0.95" vaporized=""/>
    <tripinfo id="roi_trip_163" depart="98.00" departLane="98246932_0" departPos="5.10" departSpeed="0.00" departDelay="0.20" arrival="250.00" arrivalLane="535922410-AddedOnRampEdge_3" arrivalPos="94.30" arrivalSpeed="13.60" duration="152.00" routeLength="1604.43" waitingTime="0.00" waitingCount="0" stopTime="0.00" timeLoss="28.05" rerouteNo="0" devices="tripinfo_roi_trip_163" vType="veh_passenger" speedFactor="0.93" vaporized=""/>
    <tripinfo id="roi_trip_58" depart="35.00" departLane="423997744_0" departPos="5.10" departSpeed="0.00" departDelay="0.20" arrival="258.00" arrivalLane="431981408#0_1" arrivalPos="79.97" arrivalSpeed="13.67" duration="223.00" routeLength="2296.52" waitingTime="18.00" waitingCount="1" stopTime="0.00" timeLoss="52.94" rerouteNo="0" devices="tripinfo_roi_trip_58" vType="veh_passenger" speedFactor="1.18" vaporized=""/>
    <tripinfo id="roi_trip_105" depart="63.00" departLane="314066421-AddedOffRampEdge_0" departPos="5.10" departSpeed="0.00" departDelay="0.00" arrival="258.00" arrivalLane="428326182_0" arrivalPos="173.95" arrivalSpeed="13.65" duration="195.00" routeLength="1757.47" waitingTime="1.00" waitingCount="1" stopTime="0.00" timeLoss="65.77" rerouteNo="0" devices="tripinfo_roi_trip_105" vType="veh_passenger" speedFactor="1.04" vaporized=""/>
    <tripinfo id="roi_trip_95" depart="57.00" departLane="24160009_0" departPos="5.10" departSpeed="0.00" departDelay="0.00" arrival="260.00" arrivalLane="1168109380_0" arrivalPos="88.00" arrivalSpeed="12.11" duration="203.00" routeLength="1702.03" waitingTime="17.00" waitingCount="3" stopTime="0.00" timeLoss="73.74" rerouteNo="0" devices="tripinfo_roi_trip_95" vType="veh_passenger" speedFactor="1.12" vaporized=""/>
    <tripinfo id="roi_trip_158" depart="103.00" departLane="535922409_0" departPos="5.10" departSpeed="0.00" departDelay="8.20" arrival="261.00" arrivalLane="1168109380_0" arrivalPos="88.00" arrivalSpeed="11.85" duration="158.00" routeLength="1829.91" waitingTime="0.00" waitingCount="0" stopTime="0.00" timeLoss="19.25" rerouteNo="0" devices="tripinfo_roi_trip_158" vType="veh_passenger" speedFactor="1.01" vaporized=""/>
    <tripinfo id="roi_trip_120" depart="81.00" departLane="24160011_0" departPos="5.10" departSpeed="0.00" departDelay="9.00" arrival="263.00" arrivalLane="431981407_0" arrivalPos="226.58" arrivalSpeed="13.41" duration="182.00" routeLength="1514.82" waitingTime="37.00" waitingCount="1" stopTime="0.00" timeLoss="72.11" rerouteNo="0" devices="tripinfo_roi_trip_120" vType="veh_passenger" speedFactor="1.00" vaporized=""/>
    <tripinfo id="roi_trip_381" depart="229.00" departLane="1163917760_0" departPos="0.20" departSpeed="0.00" departDelay="0.40" arrival="265.00" arrivalLane="431989326_0" arrivalPos="112.70" arrivalSpeed="12.31" duration="36.00" routeLength="321.57" waitingTime="0.00" waitingCount="0" stopTime="0.00" timeLoss="12.54" rerouteNo="0" devices="tripinfo_roi_trip_381" vType="veh_passenger" speedFactor="0.71" vaporized=""/>
    <tripinfo id="roi_trip_400" depart="240.00" departLane="431989326_0" departPos="5.10" departSpeed="0.00" departDelay="0.00" arrival="265.00" arrivalLane="1168273992-AddedOffRampEdge_0" arrivalPos="94.08" arrivalSpeed="13.76" duration="25.00" routeLength="215.56" waitingTime="0.00" waitingCount="0" stopTime="0.00" timeLoss="9.05" rerouteNo="0" devices="tripinfo_roi_trip_400" vType="veh_passenger" speedFactor="0.87" vaporized=""/>
    <tripinfo id="roi_trip_110" depart="66.00" departLane="25042886_0" departPos="5.10" departSpeed="0.00" departDelay="0.00" arrival="266.00" arrivalLane="199885791_0" arrivalPos="435.42" arrivalSpeed="10.23" duration="200.00" routeLength="1880.32" waitingTime="2.00" waitingCount="2" stopTime="0.00" timeLoss="37.69" rerouteNo="0" devices="tripinfo_roi_trip_110" vType="veh_passenger" speedFactor="0.94" vaporized=""/>
    <tripinfo id="roi_trip_151" depart="91.00" departLane="314066421-AddedOffRampEdge_0" departPos="5.10" departSpeed="0.00" departDelay="0.40" arrival="271.00" arrivalLane="1163917760_0" arrivalPos="0.20" arrivalSpeed="13.46" duration="180.00" routeLength="430.93" waitingTime="103.00" waitingCount="3" stopTime="0.00" timeLoss="148.23" rerouteNo="0" devices="tripinfo_roi_trip_151" vType="veh_passenger" speedFactor="0.96" vaporized=""/>
    <tripinfo id="roi_trip_64" depart="39.00" departLane="24160007#2_0" departPos="5.10" departSpeed="0.00" departDelay="0.60" arrival="273.00" arrivalLane="199885791_0" arrivalPos="435.42" arrivalSpeed="11.19" duration="234.00" routeLength="2603.25" waitingTime="0.00" waitingCount="0" stopTime="0.00" timeLoss="28.44" rerouteNo="0" devices="tripinfo_roi_trip_64" vType="veh_passenger" speedFactor="1.03" vaporized=""/>